VARIABLES = "CoordinateX", "CoordinateY", "CoordinateZ"
Zone T="rib0Face0" I=11 J=6
DATAPACKING=POINT
   1.497321428571428                0.001   0.2957332151127967 
   1.728571428571429                0.001   0.3058601813054537 
   1.959821428571429                0.001   0.3118786749595713 
   2.191071428571429                0.001   0.3139265438641642 
   2.422321428571429                0.001   0.3118494997393562 
   2.653571428571428                0.001   0.3049964646459858 
   2.884821428571429                0.001   0.2929855995796669 
   3.116071428571429                0.001   0.2759137071507094 
   3.347321428571429                0.001   0.2544300806060915 
   3.578571428571429                0.001   0.2289993549630781 
   3.809821428571428                0.001   0.1999139464607772 
   1.497321428571428                0.001   0.1784750184503703 
   1.728571428571429                0.001   0.1855137705609485 
   1.959821428571428 0.0009999999999999998   0.1909361650479406 
   2.191071428571429                0.001   0.1949545098738226 
   2.422321428571429                0.001    0.197267761652196 
   2.653571428571428                0.001   0.1970399826030265 
   2.884821428571429                0.001   0.1934863264237626 
    3.11607142857143                0.001    0.186342735707902 
   3.347321428571428                0.001   0.1758686742546153 
   3.578571428571429                0.001   0.1621690182821567 
   3.809821428571428                0.001   0.1451941425102029 
   1.497321428571428                0.001  0.06121682178794394 
   1.728571428571429                0.001  0.06516735981644324 
   1.959821428571429                0.001  0.06999365513631003 
   2.191071428571429                0.001  0.07598247588348073 
   2.422321428571429                0.001  0.08268602356503574 
   2.653571428571428                0.001  0.08908350056006724 
   2.884821428571429                0.001  0.09398705326785836 
   3.116071428571429                0.001  0.09677176426509455 
   3.347321428571428                0.001  0.09730726790313915 
   3.578571428571429                0.001  0.09533868160123543 
   3.809821428571428                0.001  0.09047433855962848 
   1.497321428571428                0.001 -0.05604137487448242 
   1.728571428571429                0.001 -0.05517905092806197 
   1.959821428571429                0.001 -0.05094885477532057 
   2.191071428571429                0.001 -0.04298955810686095 
   2.422321428571429                0.001  -0.0318957145221244 
   2.653571428571428                0.001 -0.01887298148289199 
   2.884821428571429                0.001 -0.005512219888045887 
   3.116071428571429                0.001 0.007200792822287114 
   3.347321428571428                0.001  0.01874586155166299 
   3.578571428571429                0.001  0.02850834492031407 
   3.809821428571428                0.001  0.03575453460905414 
   1.497321428571428                0.001  -0.1732995715369088 
   1.728571428571429                0.001  -0.1755254616725673 
   1.959821428571429                0.001  -0.1718913646869511 
   2.191071428571429                0.001  -0.1619615920972027 
   2.422321428571429                0.001  -0.1464774526092846 
   2.653571428571428                0.001  -0.1268294635258514 
   2.884821428571429                0.001  -0.1050114930439502 
    3.11607142857143                0.001  -0.0823701786205203 
   3.347321428571429                0.001 -0.05981554479981317 
   3.578571428571429                0.001  -0.0383219917606073 
   3.809821428571428                0.001  -0.0189652693415202 
   1.497321428571428                0.001  -0.2905577681993353 
   1.728571428571429                0.001  -0.2958718724170725 
   1.959821428571429                0.001  -0.2928338745985818 
   2.191071428571429                0.001  -0.2809336260875445 
   2.422321428571429                0.001  -0.2610591906964448 
   2.653571428571428                0.001  -0.2347859455688106 
   2.884821428571429                0.001  -0.2045107661998544 
   3.116071428571429                0.001  -0.1719411500633278 
   3.347321428571429                0.001  -0.1383769511512893 
   3.578571428571429                0.001  -0.1051523284415286 
   3.809821428571428                0.001 -0.07368507329209452 
Zone T="rib1Face0" I=11 J=6
DATAPACKING=POINT
   1.497321428571428   0.5006666666666667   0.2736994829576398 
   1.728571428571429   0.5006666666666667    0.288392143680273 
   1.959821428571429   0.5006666666666667    0.298440689596584 
   2.191071428571429   0.5006666666666667   0.3043022637150858 
   2.422321428571429   0.5006666666666667    0.306114946589363 
   2.653571428571428   0.5006666666666667   0.3035343790507087 
   2.884821428571429   0.5006666666666667   0.2960728167509399 
   3.116071428571429   0.5006666666666667   0.2833790123938926 
   3.347321428571429   0.5006666666666667   0.2655483517882977 
   3.578571428571429   0.5006666666666667   0.2431430481025689 
   3.809821428571428   0.5006666666666667   0.2168913288637579 
   1.497321428571428   0.5006666666666667   0.1647540765671695 
   1.728571428571429   0.5006666666666666   0.1740476020426341 
   1.959821428571428   0.5006666666666666   0.1810533687396519 
   2.191071428571429   0.5006666666666667   0.1864196465645378 
   2.422321428571429   0.5006666666666667   0.1903523853737366 
   2.653571428571428   0.5006666666666667   0.1924315647503957 
   2.884821428571429   0.5006666666666667   0.1918247294276382 
    3.11607142857143   0.5006666666666667   0.1878001873718996 
   3.347321428571428   0.5006666666666666   0.1801026861608673 
   3.578571428571429   0.5006666666666666   0.1688990641548995 
   3.809821428571428   0.5006666666666667   0.1544923200490724 
   1.497321428571428   0.5006666666666667  0.05580867017669933 
   1.728571428571429   0.5006666666666667  0.05970306040499526 
   1.959821428571429   0.5006666666666667  0.06366604788271982 
   2.191071428571429   0.5006666666666667  0.06853702941398974 
   2.422321428571429   0.5006666666666667  0.07458982415811015 
   2.653571428571428   0.5006666666666667  0.08132875045008262 
   2.884821428571429   0.5006666666666667  0.08757664210433659 
   3.116071428571429   0.5006666666666667  0.09222136234990644 
   3.347321428571428   0.5006666666666667  0.09465702053343686 
   3.578571428571429   0.5006666666666667  0.09465508020723019 
   3.809821428571428   0.5006666666666667  0.09209331123438697 
   1.497321428571428   0.5006666666666667 -0.05313673621377091 
   1.728571428571429   0.5006666666666667 -0.05464148123264365 
   1.959821428571429   0.5006666666666666 -0.05372127297421223 
   2.191071428571429   0.5006666666666667 -0.04934558773655824 
   2.422321428571429   0.5006666666666667  -0.0411727370575163 
   2.653571428571428   0.5006666666666667  -0.0297740638502304 
   2.884821428571429   0.5006666666666667   -0.016671445218965 
   3.116071428571429   0.5006666666666667 -0.003357462672086632 
   3.347321428571428   0.5006666666666667 0.009211354906006421 
   3.578571428571429   0.5006666666666667  0.02041109625956086 
   3.809821428571428   0.5006666666666667  0.02969430241970158 
   1.497321428571428   0.5006666666666667  -0.1620821426042412 
   1.728571428571429   0.5006666666666667  -0.1689860228702826 
   1.959821428571429   0.5006666666666666  -0.1711085938311443 
   2.191071428571429   0.5006666666666668  -0.1672282048871063 
   2.422321428571429   0.5006666666666667  -0.1569352982731427 
   2.653571428571428   0.5006666666666667  -0.1408768781505435 
   2.884821428571429   0.5006666666666667  -0.1209195325422666 
    3.11607142857143   0.5006666666666667 -0.09893628769407979 
   3.347321428571429   0.5006666666666667  -0.0762343107214241 
   3.578571428571429   0.5006666666666667 -0.05383288768810853 
   3.809821428571428   0.5006666666666667 -0.03270470639498388 
   1.497321428571428   0.5006666666666667  -0.2710275489947114 
   1.728571428571429   0.5006666666666667  -0.2833305645079214 
   1.959821428571429   0.5006666666666667  -0.2884959146880763 
   2.191071428571429   0.5006666666666667  -0.2851108220376544 
   2.422321428571429   0.5006666666666667  -0.2726978594887692 
   2.653571428571428   0.5006666666666667  -0.2519796924508566 
   2.884821428571429   0.5006666666666667  -0.2251676198655682 
   3.116071428571429   0.5006666666666667  -0.1945151127160729 
   3.347321428571429   0.5006666666666667  -0.1616799763488545 
   3.578571428571429   0.5006666666666667  -0.1280768716357779 
   3.809821428571428   0.5006666666666667 -0.09510371520966929 
Zone T="rib2Face0" I=11 J=6
DATAPACKING=POINT
   1.497321428571428    1.000333333333333    0.246448741060288 
   1.728571428571429    1.000333333333333   0.2663120851508202 
   1.959821428571429    1.000333333333333   0.2810510740801899 
   2.191071428571429    1.000333333333333   0.2910212071585068 
   2.422321428571429    1.000333333333333   0.2967258665874001 
   2.653571428571428    1.000333333333333   0.2982392538378475 
   2.884821428571429    1.000333333333333   0.2951605477706412 
   3.116071428571429    1.000333333333333   0.2871492296782424 
   3.347321428571429    1.000333333333333   0.2736526525180237 
   3.578571428571429    1.000333333333333   0.2548695957948642 
   3.809821428571428    1.000333333333333   0.2317602846125708 
   1.497321428571428    1.000333333333333   0.1480541755620406 
   1.728571428571429    1.000333333333333   0.1603004929608496 
   1.959821428571428    1.000333333333333   0.1696201874331927 
   2.191071428571429    1.000333333333333   0.1765929762772837 
   2.422321428571429    1.000333333333333   0.1819031423777602 
   2.653571428571428    1.000333333333333     0.18573132242472 
   2.884821428571429    1.000333333333333   0.1875548180070974 
    3.11607142857143    1.000333333333333   0.1866095279188605 
   3.347321428571428    1.000333333333333   0.1820328385162131 
   3.578571428571429    1.000333333333333   0.1736209948833166 
   3.809821428571428    1.000333333333333   0.1618525264421951 
   1.497321428571428    1.000333333333333  0.04965961006379316 
   1.728571428571429    1.000333333333333  0.05428890077087913 
   1.959821428571429    1.000333333333333  0.05818930078619557 
   2.191071428571429    1.000333333333333  0.06216474539606056 
   2.422321428571429    1.000333333333333  0.06708041816812037 
   2.653571428571428    1.000333333333333  0.07322339101159236 
   2.884821428571429    1.000333333333333  0.07994908824355364 
   3.116071428571429    1.000333333333333  0.08606982615947864 
   3.347321428571428    1.000333333333333   0.0904130245144025 
   3.578571428571429    1.000333333333333  0.09237239397176908 
   3.809821428571428    1.000333333333333  0.09194476827181947 
   1.497321428571428    1.000333333333333 -0.04873495543445422 
   1.728571428571429    1.000333333333333 -0.05172269141909133 
   1.959821428571429    1.000333333333333 -0.05324158586080164 
   2.191071428571429    1.000333333333333 -0.05226348548516249 
   2.422321428571429    1.000333333333333 -0.04774230604151947 
   2.653571428571428    1.000333333333333 -0.03928454040153517 
   2.884821428571429    1.000333333333333 -0.02765664151999012 
   3.116071428571429    1.000333333333333 -0.01446987559990319 
   3.347321428571428    1.000333333333333 -0.001206789487408105 
   3.578571428571429    1.000333333333333  0.01112379306022155 
   3.809821428571428    1.000333333333333  0.02203701010144382 
   1.497321428571428    1.000333333333333  -0.1471295209327017 
   1.728571428571429    1.000333333333333  -0.1577342836090618 
   1.959821428571429    1.000333333333333  -0.1646724725077989 
   2.191071428571429    1.000333333333334  -0.1666917163663856 
   2.422321428571429    1.000333333333333  -0.1625650302511593 
   2.653571428571428    1.000333333333333  -0.1517924718146628 
   2.884821428571429    1.000333333333333  -0.1352623712835339 
    3.11607142857143    1.000333333333333  -0.1150095773592851 
   3.347321428571429    1.000333333333333 -0.09282660348921867 
   3.578571428571429    1.000333333333333 -0.07012480785132599 
   3.809821428571428    1.000333333333333 -0.04787074806893181 
   1.497321428571428    1.000333333333333   -0.245524086430949 
   1.728571428571429    1.000333333333333  -0.2637458757990324 
   1.959821428571429    1.000333333333333   -0.276103359154796 
   2.191071428571429    1.000333333333333  -0.2811199472476087 
   2.422321428571429    1.000333333333333  -0.2773877544607991 
   2.653571428571428    1.000333333333333  -0.2643004032277904 
   2.884821428571429    1.000333333333333  -0.2428681010470777 
   3.116071428571429    1.000333333333333  -0.2155492791186669 
   3.347321428571429    1.000333333333333  -0.1844464174910293 
   3.578571428571429    1.000333333333333  -0.1513734087628736 
   3.809821428571428    1.000333333333333  -0.1177785062393075 
Zone T="rib3Face0" I=11 J=6
DATAPACKING=POINT
   1.497321428571428                  1.5    0.212299619750569 
   1.728571428571429                  1.5   0.2388927443375969 
   1.959821428571429                  1.5   0.2589246803638175 
   2.191071428571429                  1.5   0.2737100056070607 
   2.422321428571429                  1.5   0.2836017352808067 
   2.653571428571428                  1.5   0.2891494937620239 
   2.884821428571429                  1.5   0.2902720492296837 
   3.116071428571429                  1.5   0.2867867682468369 
   3.347321428571429                  1.5   0.2781243123794725 
   3.578571428571429                  1.5   0.2636856388747858 
   3.809821428571428                  1.5   0.2441909207519578 
   1.497321428571428                  1.5   0.1272564627635906 
   1.728571428571429                  1.5   0.1435016255058265 
   1.959821428571428                  1.5   0.1558469028046665 
   2.191071428571429                  1.5   0.1651927738681021 
   2.422321428571429                  1.5   0.1721325946190416 
   2.653571428571428                  1.5    0.177386662764704 
   2.884821428571429                  1.5   0.1810628069155995 
    3.11607142857143                  1.5   0.1826781172456289 
   3.347321428571428                  1.5   0.1813328797655488 
   3.578571428571429                  1.5   0.1760862320745523 
   3.809821428571428                  1.5   0.1671396574388901 
   1.497321428571428                  1.5  0.04221330577661214 
   1.728571428571429                  1.5    0.048110506674056 
   1.959821428571429                  1.5  0.05276912524551573 
   2.191071428571429                  1.5  0.05667554212914343 
   2.422321428571429                  1.5  0.06066345395727663 
   2.653571428571428                  1.5  0.06562383176738405 
   2.884821428571429                  1.5  0.07185356460151519 
   3.116071428571429                  1.5  0.07856946624442088 
   3.347321428571428                  1.5  0.08454144715162512 
   3.578571428571429                  1.5  0.08848682527431874 
   3.809821428571428                  1.5  0.09008839412582231 
   1.497321428571428                  1.5 -0.04282985121036625 
   1.728571428571429                  1.5 -0.04728061215771445 
   1.959821428571429                  1.5  -0.0503086523136351 
   2.191071428571429                  1.5 -0.05184168960981513 
   2.422321428571429                  1.5  -0.0508056867044883 
   2.653571428571428                  1.5 -0.04613899922993576 
   2.884821428571429                  1.5 -0.03735567771256902 
   3.116071428571429                  1.5 -0.02553918475678704 
   3.347321428571428                  1.5 -0.01224998546229853 
   3.578571428571429                  1.5 0.0008874184740852468 
   3.809821428571428                  1.5   0.0130371308127546 
   1.497321428571428                  1.5  -0.1278730081973448 
   1.728571428571429                  1.5  -0.1426717309894849 
   1.959821428571429                  1.5   -0.153386429872786 
   2.191071428571429                  1.5  -0.1603589213487739 
   2.422321428571429                  1.5  -0.1622748273662534 
   2.653571428571428                  1.5  -0.1579018302272557 
   2.884821428571429                  1.5  -0.1465649200266533 
    3.11607142857143                  1.5   -0.129647835757995 
   3.347321428571429                  1.5  -0.1090414180762223 
   3.578571428571429                  1.5 -0.08671198832614831 
   3.809821428571428                  1.5  -0.0640141325003132 
   1.497321428571428                  1.5  -0.2129161651843231 
   1.728571428571429                  1.5  -0.2380628498212554 
   1.959821428571429                  1.5  -0.2564642074319368 
   2.191071428571429                  1.5  -0.2688761530877325 
   2.422321428571429                  1.5  -0.2737439680280183 
   2.653571428571428                  1.5  -0.2696646612245756 
   2.884821428571429                  1.5  -0.2557741623407375 
   3.116071428571429                  1.5   -0.233756486759203 
   3.347321428571429                  1.5   -0.205832850690146 
   3.578571428571429                  1.5  -0.1743113951263819 
   3.809821428571428                  1.5  -0.1410653958133809 
Zone T="rib4Face0" I=11 J=6
DATAPACKING=POINT
   1.825093984962406    2.157842105263158   0.2047540701718578 
    2.04812030075188    2.157842105263158   0.2304003776009853 
   2.271146616541353    2.157842105263158   0.2497194719400231 
   2.494172932330827    2.157842105263158   0.2639782893925269 
   2.717199248120301    2.157842105263158   0.2735179053063628 
   2.940225563909774    2.157842105263158   0.2788680509732701 
   3.163251879699249    2.157842105263158   0.2799500879363266 
   3.386278195488722    2.157842105263158   0.2765884121309363 
   3.609304511278196    2.157842105263158   0.2682332890535125 
   3.832330827067669    2.157842105263158   0.2543077363578932 
   4.055357142857143    2.157842105263158   0.2355059905693376 
   1.825093984962406    2.157842105263158   0.1227335652882827 
    2.04812030075188    2.157842105263157   0.1384003234014708 
   2.271146616541353    2.157842105263157   0.1503063223825225 
   2.494172932330827    2.157842105263158   0.1593194259800689 
     2.7171992481203    2.157842105263158   0.1660123330062387 
   2.940225563909774    2.157842105263158   0.1710794690146145 
   3.163251879699249    2.157842105263158   0.1746246153651129 
   3.386278195488722    2.157842105263158   0.1761823305618666 
   3.609304511278195    2.157842105263157   0.1748844561532697 
   3.832330827067669    2.157842105263158   0.1698241512827616 
   4.055357142857143    2.157842105263158   0.1611955151319759 
   1.825093984962406    2.157842105263158  0.04071306040470771 
    2.04812030075188    2.157842105263158  0.04640026920195622 
   2.271146616541353    2.157842105263158  0.05089317282502197 
   2.494172932330827    2.157842105263158  0.05466056256761105 
   2.717199248120301    2.157842105263158  0.05850676070611471 
   2.940225563909774    2.157842105263158  0.06329088705595906 
   3.163251879699249    2.157842105263158  0.06929914279389912 
   3.386278195488722    2.157842105263158  0.07577624899279695 
   3.609304511278196    2.157842105263158  0.08153562325302707 
   3.832330827067669    2.157842105263158  0.08534056620762995 
   4.055357142857143    2.157842105263158  0.08688503969461416 
   1.825093984962406    2.157842105263158 -0.04130744447886728 
    2.04812030075188    2.157842105263157 -0.04559978499755823 
   2.271146616541353    2.157842105263158 -0.04851997673247854 
   2.494172932330827    2.157842105263158 -0.04999830084484674 
   2.717199248120301    2.157842105263158 -0.04899881159400931 
   2.940225563909774    2.157842105263158 -0.04449769490269637 
   3.163251879699249    2.157842105263158 -0.03602632977731456 
   3.386278195488722    2.157842105263158 -0.02462983257627269 
   3.609304511278196    2.157842105263158  -0.0118132096472156 
   3.832330827067669    2.157842105263158 0.0008569811324983792 
   4.055357142857143    2.157842105263158  0.01257456425725245 
   1.825093984962406    2.157842105263158  -0.1233279493624423 
    2.04812030075188    2.157842105263158  -0.1375998391970728 
   2.271146616541353    2.157842105263157  -0.1479331262899791 
   2.494172932330827    2.157842105263158  -0.1546571642573047 
   2.717199248120301    2.157842105263158  -0.1565043838941333 
   2.940225563909774    2.157842105263158  -0.1522862768613519 
   3.163251879699249    2.157842105263158  -0.1413518023485284 
   3.386278195488722    2.157842105263158  -0.1250359141453424 
   3.609304511278196    2.157842105263158  -0.1051620425474583 
   3.832330827067669    2.157842105263158 -0.08362660394263324 
   4.055357142857143    2.157842105263158  -0.0617359111801093 
   1.825093984962406    2.157842105263158  -0.2053484542460173 
    2.04812030075188    2.157842105263158  -0.2295998933965873 
   2.271146616541353    2.157842105263158  -0.2473462758474796 
   2.494172932330827    2.157842105263158  -0.2593160276697625 
   2.717199248120301    2.157842105263158  -0.2640099561942574 
   2.940225563909774    2.157842105263158  -0.2600748588200074 
   3.163251879699249    2.157842105263158   -0.246677274919742 
   3.386278195488722    2.157842105263158   -0.225441995714412 
   3.609304511278196    2.157842105263158  -0.1985108754477009 
   3.832330827067669    2.157842105263158  -0.1681101890177649 
   4.055357142857143    2.157842105263158   -0.136046386617471 
Zone T="rib5Face0" I=11 J=6
DATAPACKING=POINT
   2.152866541353383    2.815684210526316   0.1972085253034884 
   2.367669172932331    2.815684210526316   0.2219080075479511 
   2.582471804511278    2.815684210526316   0.2405142666959895 
   2.797274436090226    2.815684210526316   0.2542465725509696 
   3.012077067669173    2.815684210526316   0.2634340764513114 
    3.22687969924812    2.815684210526316   0.2685866101976399 
   3.441682330827069    2.815684210526316   0.2696281248479831 
   3.656484962406015    2.815684210526316   0.2663900596446311 
   3.871287593984963    2.815684210526316   0.2583422635953856 
    4.08609022556391    2.815684210526316   0.2449298365913291 
   4.300892857142857    2.815684210526316   0.2268210616050048 
   2.152866541353383    2.815684210526316   0.1182106722916652 
   2.367669172932331    2.815684210526315   0.1332990182269657 
   2.582471804511278    2.815684210526315   0.1447657449340169 
   2.797274436090226    2.815684210526316   0.1534460774050001 
   3.012077067669173    2.815684210526316   0.1598920725922247 
    3.22687969924812    2.815684210526316   0.1647722772208323 
   3.441682330827069    2.815684210526315   0.1681864221782819 
   3.656484962406016    2.815684210526316    0.169686547089574 
   3.871287593984963    2.815684210526315   0.1684360307041091 
    4.08609022556391    2.815684210526316   0.1635620727675927 
   4.300892857142857    2.815684210526316   0.1552513738003311 
   2.152866541353383    2.815684210526316  0.03921281927984206 
   2.367669172932331    2.815684210526316  0.04469002890598028 
   2.582471804511278    2.815684210526316  0.04901722317204441 
   2.797274436090226    2.815684210526316  0.05264558225903071 
   3.012077067669173    2.815684210526316  0.05635006873313798 
    3.22687969924812    2.815684210526316  0.06095794424402493 
   3.441682330827068    2.815684210526316  0.06674471950858069 
   3.656484962406015    2.815684210526316  0.07298303453451689 
   3.871287593984963    2.815684210526316  0.07852979781283269 
    4.08609022556391    2.815684210526316  0.08219430894385632 
   4.300892857142857    2.815684210526316  0.08368168599565746 
   2.152866541353383    2.815684210526316 -0.03978503373198112 
   2.367669172932331    2.815684210526316 -0.04391896041500518 
   2.582471804511278    2.815684210526315 -0.04673129858992811 
   2.797274436090226    2.815684210526316 -0.04815491288693866 
   3.012077067669173    2.815684210526316 -0.04719193512594871 
    3.22687969924812    2.815684210526316 -0.04285638873278247 
   3.441682330827068    2.815684210526316 -0.03469698316112047 
   3.656484962406016    2.815684210526316 -0.02372047802054015 
   3.871287593984963    2.815684210526316 -0.01137643507844377 
    4.08609022556391    2.815684210526316 0.0008265451201200048 
   4.300892857142857    2.815684210526316  0.01211199819098388 
   2.152866541353383    2.815684210526316  -0.1187828867438043 
   2.367669172932331    2.815684210526316  -0.1325279497359906 
   2.582471804511278    2.815684210526315  -0.1424798203519007 
   2.797274436090226    2.815684210526316  -0.1489554080329081 
   3.012077067669173    2.815684210526316  -0.1507339389850355 
    3.22687969924812    2.815684210526316  -0.1466707217095899 
   3.441682330827069    2.815684210526316  -0.1361386858308217 
   3.656484962406016    2.815684210526316  -0.1204239905755973 
   3.871287593984963    2.815684210526316  -0.1012826679697203 
   4.086090225563909    2.815684210526316 -0.08054121870361637 
   4.300892857142857    2.815684210526316 -0.05945768961368979 
   2.152866541353383    2.815684210526316  -0.1977807397556275 
   2.367669172932331    2.815684210526316   -0.221136939056976 
   2.582471804511278    2.815684210526316  -0.2382283421138731 
   2.797274436090226    2.815684210526316  -0.2497559031788775 
   3.012077067669173    2.815684210526316  -0.2542759428441222 
    3.22687969924812    2.815684210526316  -0.2504850546863973 
   3.441682330827069    2.815684210526316  -0.2375803885005229 
   3.656484962406015    2.815684210526316  -0.2171275031306544 
   3.871287593984963    2.815684210526316  -0.1911889008609967 
    4.08609022556391    2.815684210526316  -0.1619089825273527 
   4.300892857142857    2.815684210526316  -0.1310273774183634 
Zone T="rib6Face0" I=11 J=6
DATAPACKING=POINT
   2.480639097744361    3.473526315789473   0.1896629762334254 
   2.687218045112782    3.473526315789473   0.2134156372187427 
   2.893796992481202    3.473526315789473   0.2313090559457276 
   3.100375939849624    3.473526315789473    0.244514855789787 
   3.306954887218044    3.473526315789473   0.2533502435352594 
   3.513533834586466    3.473526315789473    0.258305168264694 
   3.720112781954887    3.473526315789473   0.2593061603367319 
   3.926691729323308    3.473526315789473   0.2561917020101455 
   4.133270676691729    3.473526315789473   0.2484512382154016 
    4.33984962406015    3.473526315789473   0.2355519300134434 
   4.546428571428571    3.473526315789473   0.2181361324986187 
   2.480639097744361    3.473526315789473   0.1136877753656919 
   2.687218045112781    3.473526315789473   0.1281977127207529 
   2.893796992481202    3.473526315789473   0.1392251623655287 
   3.100375939849624    3.473526315789473   0.1475727288972451 
   3.306954887218044    3.473526315789473   0.1537718079627576 
   3.513533834586466    3.473526315789473   0.1584650843176188 
   3.720112781954887    3.473526315789473   0.1617482275648051 
   3.926691729323308    3.473526315789473   0.1631907591160281 
   4.133270676691729    3.473526315789472   0.1619876053161496 
   4.339849624060149    3.473526315789473   0.1572999886511223 
   4.546428571428571    3.473526315789473   0.1493072323549977 
   2.480639097744361    3.473526315789473  0.03771257449795837 
   2.687218045112782    3.473526315789473  0.04297978822276302 
   2.893796992481202    3.473526315789473  0.04714126878532981 
   3.100375939849624    3.473526315789473  0.05063060200470317 
   3.306954887218045    3.473526315789473   0.0541933723902558 
   3.513533834586465    3.473526315789473  0.05862500037054372 
   3.720112781954887    3.473526315789473  0.06419029479287813 
   3.926691729323308    3.473526315789473  0.07018981622191078 
   4.133270676691729    3.473526315789473  0.07552397241689768 
    4.33984962406015    3.473526315789473  0.07904804728880117 
   4.546428571428571    3.473526315789473  0.08047833221137683 
   2.480639097744361    3.473526315789473 -0.03826262636977515 
   2.687218045112781    3.473526315789473 -0.04223813627522679 
   2.893796992481203    3.473526315789473 -0.04494262479486913 
   3.100375939849624    3.473526315789473  -0.0463115248878387 
   3.306954887218045    3.473526315789473 -0.04538506318224596 
   3.513533834586465    3.473526315789473 -0.04121508357653137 
   3.720112781954887    3.473526315789473 -0.03336763797904876 
   3.926691729323308    3.473526315789473 -0.02281112667220659 
   4.133270676691729    3.473526315789473 -0.01093966048235429 
    4.33984962406015    3.473526315789473 0.0007961059264800386 
   4.546428571428571    3.473526315789473  0.01164943206775592 
   2.480639097744361    3.473526315789473  -0.1142378272375087 
   2.687218045112781    3.473526315789473  -0.1274560607732166 
   2.893796992481202    3.473526315789473  -0.1370265183750681 
   3.100375939849624    3.473526315789473  -0.1432536517803806 
   3.306954887218044    3.473526315789473  -0.1449634987547478 
   3.513533834586466    3.473526315789473  -0.1410551675236065 
   3.720112781954887    3.473526315789473  -0.1309255707509757 
   3.926691729323308    3.473526315789473   -0.115812069566324 
   4.133270676691729    3.473526315789473 -0.09740329338160625 
    4.33984962406015    3.473526315789473  -0.0774558354358411 
   4.546428571428571    3.473526315789473 -0.05717946807586501 
   2.480639097744361    3.473526315789473  -0.1902130281052422 
   2.687218045112782    3.473526315789473  -0.2126739852712065 
   2.893796992481202    3.473526315789473   -0.229110411955267 
   3.100375939849624    3.473526315789473  -0.2401957786729225 
   3.306954887218044    3.473526315789473  -0.2445419343272495 
   3.513533834586466    3.473526315789473  -0.2408952514706816 
   3.720112781954887    3.473526315789473  -0.2284835035229026 
   3.926691729323308    3.473526315789473  -0.2088130124604414 
   4.133270676691729    3.473526315789473  -0.1838669262808582 
    4.33984962406015    3.473526315789473  -0.1557077767981623 
   4.546428571428571    3.473526315789473  -0.1260083682194859 
Zone T="rib7Face0" I=11 J=6
DATAPACKING=POINT