VARIABLES = "CoordinateX", "CoordinateY", "CoordinateZ"
Zone T="rib0Face0" I=6 J=4
DATAPACKING=POINT
   1.497321428571428                0.001   0.2957332151127967 
   1.959821428571429                0.001   0.3118786749595713 
   2.422321428571429                0.001   0.3118494997393562 
   2.884821428571429                0.001   0.2929855995796669 
   3.347321428571429                0.001   0.2544300806060915 
   3.809821428571428                0.001   0.1999139464607772 
   1.497321428571428                0.001   0.1003028873420861 
   1.959821428571428 0.0009999999999999998   0.1103078251068536 
   2.422321428571429                0.001   0.1208799362607558 
   2.884821428571429                0.001   0.1271534776531598 
   3.347321428571429 0.0009999999999999998   0.1234944033536312 
   3.809821428571428                0.001   0.1087142732098199 
   1.497321428571428                0.001 -0.09512744042862455 
   1.959821428571429                0.001 -0.09126302474586404 
   2.422321428571429                0.001 -0.07008962721784449 
   2.884821428571429                0.001  -0.0386786442733473 
   3.347321428571429                0.001 -0.007441273898829045 
   3.809821428571428                0.001   0.0175145999588627 
   1.497321428571428                0.001  -0.2905577681993353 
   1.959821428571429                0.001  -0.2928338745985818 
   2.422321428571429                0.001  -0.2610591906964448 
   2.884821428571429                0.001  -0.2045107661998544 
   3.347321428571429                0.001  -0.1383769511512893 
   3.809821428571428                0.001 -0.07368507329209452 
Zone T="rib1Face0" I=6 J=4
DATAPACKING=POINT
   1.497321428571428   0.5006666666666667   0.2736994829576398 
   1.959821428571429   0.5006666666666667    0.298440689596584 
   2.422321428571429   0.5006666666666667    0.306114946589363 
   2.884821428571429   0.5006666666666667   0.2960728167509399 
   3.347321428571429   0.5006666666666667   0.2655483517882977 
   3.809821428571428   0.5006666666666667   0.2168913288637579 
   1.497321428571428   0.5006666666666667  0.09212380564018942 
   1.959821428571428   0.5006666666666667   0.1027951548350305 
   2.422321428571429   0.5006666666666667    0.113177344563319 
   2.884821428571429   0.5006666666666666   0.1223260045454372 
   3.347321428571429   0.5006666666666667   0.1231389090759137 
   3.809821428571428   0.5006666666666667   0.1128929808392821 
   1.497321428571428   0.5006666666666667 -0.08945187167726099 
   1.959821428571429   0.5006666666666667  -0.0928503799265229 
   2.422321428571429   0.5006666666666667 -0.07976025746272512 
   2.884821428571429   0.5006666666666667 -0.05142080766006556 
   3.347321428571429   0.5006666666666667 -0.01927053363647041 
   3.809821428571428   0.5006666666666667 0.008894632814806427 
   1.497321428571428   0.5006666666666667  -0.2710275489947114 
   1.959821428571429   0.5006666666666667  -0.2884959146880763 
   2.422321428571429   0.5006666666666667  -0.2726978594887692 
   2.884821428571429   0.5006666666666667  -0.2251676198655682 
   3.347321428571429   0.5006666666666667  -0.1616799763488545 
   3.809821428571428   0.5006666666666667 -0.09510371520966929 
Zone T="rib2Face0" I=6 J=4
DATAPACKING=POINT
   1.497321428571428    1.000333333333333    0.246448741060288 
   1.959821428571429    1.000333333333333   0.2810510740801899 
   2.422321428571429    1.000333333333333   0.2967258665874001 
   2.884821428571429    1.000333333333333   0.2951605477706412 
   3.347321428571429    1.000333333333333   0.2736526525180237 
   3.809821428571428    1.000333333333333   0.2317602846125708 
   1.497321428571428    1.000333333333333  0.08245779856320896 
   1.959821428571428    1.000333333333333  0.09533292966852797 
   2.422321428571429    1.000333333333333   0.1053546595713337 
   2.884821428571429    1.000333333333333   0.1158176648314016 
   3.347321428571429    1.000333333333333    0.120952962515006 
   3.809821428571428    1.000333333333333   0.1152473543286113 
   1.497321428571428    1.000333333333333    -0.08153314393387 
   1.959821428571429    1.000333333333333 -0.09038521474313398 
   2.422321428571429    1.000333333333333 -0.08601654744473272 
   2.884821428571429    1.000333333333333 -0.06352521810783801 
   3.347321428571429    1.000333333333333 -0.03174672748801161 
   3.809821428571428    1.000333333333333 -0.001265575955348038 
   1.497321428571428    1.000333333333333   -0.245524086430949 
   1.959821428571429    1.000333333333333   -0.276103359154796 
   2.422321428571429    1.000333333333333  -0.2773877544607991 
   2.884821428571429    1.000333333333333  -0.2428681010470777 
   3.347321428571429    1.000333333333333  -0.1844464174910293 
   3.809821428571428    1.000333333333333  -0.1177785062393075 
Zone T="rib3Face0" I=6 J=4
DATAPACKING=POINT
   1.497321428571428                  1.5    0.212299619750569 
   1.959821428571429                  1.5   0.2589246803638175 
   2.422321428571429                  1.5   0.2836017352808067 
   2.884821428571429                  1.5   0.2902720492296837 
   3.347321428571429                  1.5   0.2781243123794725 
   3.809821428571428                  1.5   0.2441909207519578 
   1.497321428571428                  1.5  0.07056102477227166 
   1.959821428571428                  1.5  0.08712838443189937 
   2.422321428571429                  1.5  0.09781983417786499 
   2.884821428571429                  1.5   0.1082566453728766 
   3.347321428571429                  1.5    0.116805258022933 
   3.809821428571428                  1.5   0.1157721485635116 
   1.497321428571428                  1.5 -0.07117757020602572 
   1.959821428571429                  1.5 -0.08466791150001871 
   2.422321428571429                  1.5 -0.08796206692507663 
   2.884821428571429                  1.5 -0.07375875848393043 
   3.347321428571429                  1.5 -0.04451379633360643 
   3.809821428571428                  1.5 -0.01264662362493466 
   1.497321428571428                  1.5  -0.2129161651843231 
   1.959821428571429                  1.5  -0.2564642074319368 
   2.422321428571429                  1.5  -0.2737439680280183 
   2.884821428571429                  1.5  -0.2557741623407375 
   3.347321428571429                  1.5   -0.205832850690146 
   3.809821428571428                  1.5  -0.1410653958133809 
Zone T="rib4Face0" I=6 J=4
DATAPACKING=POINT
   1.825093984962406    2.157842105263158   0.2047540701718578 
   2.271146616541353    2.157842105263158   0.2497194719400231 
   2.717199248120301    2.157842105263158   0.2735179053063628 
   3.163251879699249    2.157842105263158   0.2799500879363266 
   3.609304511278196    2.157842105263158   0.2682332890535125 
   4.055357142857143    2.157842105263158   0.2355059905693376 
   1.825093984962406    2.157842105263158  0.06805322869923276 
   2.271146616541353    2.157842105263157  0.08403088934418887 
     2.7171992481203    2.157842105263158  0.09434195147282275 
   3.163251879699248    2.157842105263157   0.1044076336509704 
   3.609304511278196    2.157842105263158   0.1126519008864413 
   4.055357142857143    2.157842105263158   0.1116551981737347 
   1.825093984962406    2.157842105263158 -0.06864761277339228 
   2.271146616541353    2.157842105263158 -0.08165769325164535 
     2.7171992481203    2.157842105263158 -0.08483400236071725 
   3.163251879699249    2.157842105263158  -0.0711348206343858 
   3.609304511278196    2.157842105263158 -0.04292948728062979 
   4.055357142857143    2.157842105263158 -0.01219559422186811 
   1.825093984962406    2.157842105263158  -0.2053484542460173 
   2.271146616541353    2.157842105263158  -0.2473462758474796 
   2.717199248120301    2.157842105263158  -0.2640099561942574 
   3.163251879699249    2.157842105263158   -0.246677274919742 
   3.609304511278196    2.157842105263158  -0.1985108754477009 
   4.055357142857143    2.157842105263158   -0.136046386617471 
Zone T="rib5Face0" I=6 J=4
DATAPACKING=POINT
   2.152866541353383    2.815684210526316   0.1972085253034884 
   2.582471804511278    2.815684210526316   0.2405142666959895 
   3.012077067669173    2.815684210526316   0.2634340764513114 
   3.441682330827069    2.815684210526316   0.2696281248479831 
   3.871287593984963    2.815684210526316   0.2583422635953856 
   4.300892857142857    2.815684210526316   0.2268210616050048 
   2.152866541353383    2.815684210526316  0.06554543695044977 
   2.582471804511278    2.815684210526315  0.08093339709270191 
   3.012077067669173    2.815684210526316  0.09086407001950027 
   3.441682330827069    2.815684210526316   0.1005586203984811 
   3.871287593984963    2.815684210526316   0.1084985421099249 
   4.300892857142857    2.815684210526316   0.1075382485972154 
   2.152866541353383    2.815684210526316 -0.06611765140258882 
   2.582471804511278    2.815684210526316 -0.07864747251058561 
   3.012077067669173    2.815684210526316 -0.08170593641231097 
   3.441682330827068    2.815684210526316  -0.0685108840510209 
   3.871287593984963    2.815684210526316 -0.04134517937553591 
   4.300892857142857    2.815684210526316 -0.01174456441057401 
   2.152866541353383    2.815684210526316  -0.1977807397556275 
   2.582471804511278    2.815684210526316  -0.2382283421138731 
   3.012077067669173    2.815684210526316  -0.2542759428441222 
   3.441682330827069    2.815684210526316  -0.2375803885005229 
   3.871287593984963    2.815684210526316  -0.1911889008609967 
   4.300892857142857    2.815684210526316  -0.1310273774183634 
Zone T="rib6Face0" I=6 J=4
DATAPACKING=POINT
   2.480639097744361    3.473526315789473   0.1896629762334254 
   2.893796992481202    3.473526315789473   0.2313090559457276 
   3.306954887218044    3.473526315789473   0.2533502435352594 
   3.720112781954887    3.473526315789473   0.2593061603367319 
   4.133270676691729    3.473526315789473   0.2484512382154016 
   4.546428571428571    3.473526315789473   0.2181361324986187 
   2.480639097744361    3.473526315789473  0.06303764145386956 
   2.893796992481202    3.473526315789473  0.07783589997872946 
   3.306954887218044    3.473526315789473  0.08738618424775639 
   3.720112781954887    3.473526315789474   0.0967096057168538 
   4.133270676691728    3.473526315789474    0.104345183383315 
   4.546428571428571    3.473526315789473   0.1034212989259172 
   2.480639097744361    3.473526315789473 -0.06358769332568627 
   2.893796992481202    3.473526315789473 -0.07563725598826873 
   3.306954887218044    3.473526315789473 -0.07857787503974653 
   3.720112781954887    3.473526315789473 -0.06588694890302438 
   4.133270676691729    3.473526315789473 -0.03976087144877157 
   4.546428571428571    3.473526315789473 -0.01129353464678436 
   2.480639097744361    3.473526315789473  -0.1902130281052422 
   2.893796992481202    3.473526315789473   -0.229110411955267 
   3.306954887218044    3.473526315789473  -0.2445419343272495 
   3.720112781954887    3.473526315789473  -0.2284835035229026 
   4.133270676691729    3.473526315789473  -0.1838669262808582 
   4.546428571428571    3.473526315789473  -0.1260083682194859 
Zone T="rib7Face0" I=6 J=4
DATAPACKING=POINT
   2.808411654135338    4.131368421052631   0.1821174305741179 
   3.205122180451128    4.131368421052631   0.2221038502373416 
   3.601832706766918    4.131368421052631   0.2432664161142916 
   3.998543233082707    4.131368421052631   0.2489842011495468 
   4.395253759398495    4.131368421052631   0.2385602155221334 
   4.791964285714285    4.131368421052631   0.2094512029035663 
   2.808411654135338    4.131368421052631  0.06052984891967939 
   3.205122180451127     4.13136842105263   0.0747384072784216 
   3.601832706766917    4.131368421052631  0.08390830410328512 
   3.998543233082707    4.131368421052631  0.09286059598819768 
   4.395253759398495    4.131368421052631   0.1001918266979938 
   4.791964285714285    4.131368421052631  0.09930434892740495 
   2.808411654135338    4.131368421052631 -0.06105773273475915 
   3.205122180451128    4.131368421052631 -0.07262703568049833 
   3.601832706766917    4.131368421052631 -0.07544980790772138 
   3.998543233082707    4.131368421052631 -0.06326300917315145 
   4.395253759398495    4.131368421052631 -0.03817656212614576 
   4.791964285714285    4.131368421052631 -0.01084250504875645 
   2.808411654135338    4.131368421052631  -0.1826453143891977 
   3.205122180451128    4.131368421052631  -0.2199924786394183 
   3.601832706766918    4.131368421052631  -0.2348079199187279 
   3.998543233082707    4.131368421052631  -0.2193866143345005 
   4.395253759398495    4.131368421052631  -0.1765449509502853 
   4.791964285714285    4.131368421052631  -0.1209893590249179 
Zone T="rib8Face0" I=6 J=4
DATAPACKING=POINT
   3.136184210526316     4.78921052631579   0.1745718866138047 
   3.516447368421053     4.78921052631579   0.2128986443158554 
   3.896710526315789     4.78921052631579   0.2331825855425083 
   4.276973684210527     4.78921052631579   0.2386622368057941 
   4.657236842105263     4.78921052631579   0.2286691904420354 
              5.0375     4.78921052631579   0.2007662743929154 
   3.136184210526316     4.78921052631579  0.05802205791946021 
   3.516447368421054     4.78921052631579  0.07164091446273987 
   3.896710526315789     4.78921052631579  0.08043042081985685 
   4.276973684210526     4.78921052631579  0.08901158142030977 
   4.657236842105263    4.789210526315789  0.09603846817628596 
              5.0375     4.78921052631579  0.09518739965301846 
   3.136184210526316     4.78921052631579  -0.0585277707748843 
   3.516447368421053     4.78921052631579 -0.06961681539037562 
   3.896710526315789     4.78921052631579 -0.07232174390279464 
   4.276973684210526     4.78921052631579 -0.06063907396517453 
   4.657236842105263     4.78921052631579 -0.03659225408946348 
              5.0375     4.78921052631579 -0.01039147508687843 
   3.136184210526316     4.78921052631579  -0.1750775994692289 
   3.516447368421053     4.78921052631579  -0.2108745452434912 
   3.896710526315789     4.78921052631579  -0.2250739086254461 
   4.276973684210527     4.78921052631579  -0.2102897293506589 
   4.657236842105263     4.78921052631579  -0.1692229763552129 
              5.0375     4.78921052631579  -0.1159703498267753 
Zone T="rib9Face0" I=6 J=4
DATAPACKING=POINT
   3.463956766917293    5.447052631578947   0.1670263365552049 
   3.827772556390977    5.447052631578948   0.2036934341302017 
   4.191588345864662    5.447052631578947   0.2230987541865651 
   4.555404135338347    5.447052631578947   0.2283402741975728 
    4.91921992481203    5.447052631578947   0.2187781677722022 
   5.283035714285714    5.447052631578947     0.19208134477043 
   3.463956766917293    5.447052631578947  0.05551426142284843 
   3.827772556390977    5.447052631578948   0.0685434177069965 
   4.191588345864662    5.447052631578946  0.07695253656966332 
   4.555404135338346    5.447052631578947  0.08516256840702088 
    4.91921992481203    5.447052631578946  0.09188511140390784 
   5.283035714285714    5.447052631578947  0.09107044963579335 
   3.463956766917293    5.447052631578947 -0.05599781370950808 
   3.827772556390977    5.447052631578948 -0.06660659871620869 
   4.191588345864663    5.447052631578947 -0.06919368104723851 
   4.555404135338347    5.447052631578947 -0.05801513738353097 
    4.91921992481203    5.447052631578947 -0.03500794496438656 
   5.283035714285714    5.447052631578947 -0.009940445498843287 
   3.463956766917293    5.447052631578947  -0.1675098888418646 
   3.827772556390977    5.447052631578948  -0.2017566151394139 
   4.191588345864662    5.447052631578947  -0.2153398986641404 
   4.555404135338347    5.447052631578947  -0.2011928431740828 
    4.91921992481203    5.447052631578947   -0.161901001332681 
   5.283035714285714    5.447052631578947    -0.11095134063348 
Zone T="rib10Face0" I=6 J=4
DATAPACKING=POINT
   3.791729323308271    6.104894736842105    0.159480793312257 
   4.139097744360902    6.104894736842105   0.1944882301831466 
   4.486466165413534    6.104894736842105   0.2130149285059901 
   4.833834586466164    6.104894736842105   0.2180183142193015 
   5.181203007518798    6.104894736842105   0.2088871436754949 
   5.528571428571428    6.104894736842105   0.1833964166528517 
   3.791729323308271    6.104894736842105  0.05300647100558931 
   4.139097744360902    6.104894736842104  0.06544592651858493 
   4.486466165413533    6.104894736842104  0.07347465812114409 
   4.833834586466165    6.104894736842104  0.08131355789876939 
   5.181203007518797    6.104894736842104  0.08773175367772815 
   5.528571428571428    6.104894736842104  0.08695350062313281 
   3.791729323308271    6.104894736842105  -0.0534678513010784 
   4.139097744360902    6.104894736842104 -0.06359637714597678 
   4.486466165413533    6.104894736842105 -0.06606561226370196 
   4.833834586466165    6.104894736842105 -0.05539119842176279 
   5.181203007518797    6.104894736842105 -0.03342363632003859 
   5.528571428571428    6.104894736842105 -0.009489415406586103 
   3.791729323308271    6.104894736842105  -0.1599421736077461 
   4.139097744360902    6.104894736842105  -0.1926386808105385 
   4.486466165413534    6.104894736842105  -0.2056058826485481 
   4.833834586466164    6.104894736842105   -0.192095954742295 
   5.181203007518798    6.104894736842105  -0.1545790263178054 
   5.528571428571428    6.104894736842105   -0.105932331436305 
Zone T="rib11Face0" I=6 J=4
DATAPACKING=POINT
   4.119501879699248    6.762736842105263   0.1519352490129184 
   4.450422932330827    6.762736842105263    0.185283022147321 
   4.781343984962406    6.762736842105263   0.2029310957934896 
   5.112265037593985    6.762736842105263   0.2076963501246731 
   5.443186090225563    6.762736842105263   0.1989961191651406 
   5.774107142857142    6.762736842105263    0.174711488795966 
   4.119501879699248    6.762736842105264  0.05049867974708258 
   4.450422932330826    6.762736842105264   0.0623484317390738 
   4.781343984962405    6.762736842105263  0.06999677253938648 
   5.112265037593985    6.762736842105262  0.07746454347587273 
   5.443186090225562    6.762736842105264  0.08357839554159195 
   5.774107142857142    6.762736842105264  0.08283655178411059 
   4.119501879699248    6.762736842105263  -0.0509378895187532 
   4.450422932330827    6.762736842105262 -0.06058615866917329 
   4.781343984962406    6.762736842105263 -0.06293755071471668 
   5.112265037593985    6.762736842105263 -0.05276726317292763 
   5.443186090225563    6.762736842105263 -0.03183932808195669 
   5.774107142857142    6.762736842105263 -0.009038385227744828 
   4.119501879699248    6.762736842105263  -0.1523744587845889 
   4.450422932330827    6.762736842105263  -0.1835207490774204 
   4.781343984962406    6.762736842105263  -0.1958718739688199 
   5.112265037593985    6.762736842105263   -0.182999069821728 
   5.443186090225563    6.762736842105263  -0.1472570517055054 
   5.774107142857142    6.762736842105263  -0.1009133222396003 
Zone T="rib12Face0" I=6 J=4
DATAPACKING=POINT
   4.447274436090225    7.420578947368421   0.1443897011350097 
   4.761748120300752    7.420578947368421   0.1760778152253449 
   5.076221804511278    7.420578947368421   0.1928472675435747 
   5.390695488721804    7.420578947368421   0.1973743911958581 
   5.705169172932332    7.420578947368421   0.1891050982387688 
   6.019642857142857    7.420578947368421   0.1660265597737386 
   4.447274436090225    7.420578947368421  0.04799088494598509 
   4.761748120300752     7.42057894736842  0.05925093782193951 
   5.076221804511278    7.420578947368421  0.06651889136150113 
   5.390695488721804    7.420578947368421  0.07361553371771289 
   5.705169172932331    7.420578947368421  0.07942504011491833 
   6.019642857142857    7.420578947368421   0.0787196021662278 
   4.447274436090225    7.420578947368421  -0.0484079312430395 
   4.761748120300752    7.420578947368421 -0.05757593958146583 
   5.076221804511278    7.420578947368421 -0.05980948482057243 
   5.390695488721803    7.420578947368421 -0.05014332376043228 
   5.705169172932332    7.420578947368421 -0.03025501800893213 
   6.019642857142857    7.420578947368421 -0.008587355441283024 
   4.447274436090225    7.420578947368421  -0.1448067474320641 
   4.761748120300752    7.420578947368421  -0.1744028169848711 
   5.076221804511278    7.420578947368421   -0.186137861002646 
   5.390695488721804    7.420578947368421  -0.1739021812385775 
   5.705169172932332    7.420578947368421  -0.1399350761327826 
   6.019642857142857    7.420578947368421 -0.09589431304879387 
Zone T="rib13Face0" I=6 J=4
DATAPACKING=POINT
   4.775046992481203     8.07842105263158   0.1368441595344448 
   5.073073308270676     8.07842105263158   0.1668726125877238 
   5.371099624060149     8.07842105263158   0.1827634404073364 
   5.669125939849625     8.07842105263158   0.1870524291704157 
   5.967152255639097     8.07842105263158   0.1792140743479101 
   6.265178571428571     8.07842105263158   0.1573416325127348 
   4.775046992481203     8.07842105263158   0.0454830958739027 
   5.073073308270676    8.078421052631578  0.05615344770658605 
   5.371099624060149     8.07842105263158  0.06304101142476193 
   5.669125939849624     8.07842105263158  0.06976652125283689 
   5.967152255639097    8.078421052631578  0.07527168240414832 
    6.26517857142857     8.07842105263158  0.07460265372396171 
   4.775046992481203     8.07842105263158 -0.04587796778663944 
   5.073073308270676     8.07842105263158 -0.05456571717455175 
   5.371099624060149     8.07842105263158  -0.0566814175578125 
   5.669125939849624     8.07842105263158 -0.04751938666474192 
   5.967152255639097     8.07842105263158 -0.02867070953961348 
   6.265178571428571     8.07842105263158 -0.008136325064811328 
   4.775046992481203     8.07842105263158  -0.1372390314471816 
   5.073073308270676     8.07842105263158  -0.1652848820556896 
   5.371099624060149     8.07842105263158  -0.1764038465403869 
   5.669125939849625     8.07842105263158  -0.1648052945823207 
   5.967152255639097     8.07842105263158  -0.1326131014833753 
   6.265178571428571     8.07842105263158  -0.0908753038535844 
Zone T="rib14Face0" I=6 J=4
DATAPACKING=POINT
    5.10281954887218    8.736263157894737   0.1292986116606119 
   5.384398496240602    8.736263157894737   0.1576674018565925 
   5.665977443609022    8.736263157894737   0.1726796078104428 
   5.947556390977444    8.736263157894737   0.1767304655160109 
   6.229135338345865    8.736263157894737    0.169323050745467 
   6.510714285714286    8.736263157894737   0.1486567048842691 
    5.10281954887218    8.736263157894737  0.04297530113267387 
   5.384398496240601    8.736263157894735  0.05305595040235606 
   5.665977443609021    8.736263157894737  0.05956312565851546 
   5.947556390977444    8.736263157894737  0.06591750710547324 
   6.229135338345864    8.736263157894737  0.07111832488476162 
   6.510714285714286    8.736263157894737  0.07048570503646459 
    5.10281954887218    8.736263157894737 -0.04334800939526421 
   5.384398496240602    8.736263157894737 -0.05155550105188043 
   5.665977443609021    8.736263157894737 -0.05355335649341192 
   5.947556390977444    8.736263157894737 -0.04489545130506438 
   6.229135338345865    8.736263157894737 -0.02708640097594373 
   6.510714285714286    8.736263157894737 -0.007685294811339944 
    5.10281954887218    8.736263157894737  -0.1296713199232023 
   5.384398496240602    8.736263157894737   -0.156166952506117 
   5.665977443609022    8.736263157894737  -0.1666698386453393 
   5.947556390977444    8.736263157894737   -0.155708409715602 
   6.229135338345865    8.736263157894737  -0.1252911268366491 
   6.510714285714286    8.736263157894737 -0.08585629465914449 
Zone T="rib15Face0" I=6 J=4
DATAPACKING=POINT
   5.430592105263157    9.394105263157893   0.1217530703164186 
   5.695723684210527    9.394105263157893   0.1484621995124679 
   5.960855263157894    9.394105263157893   0.1625957839160057 
   6.225986842105263    9.394105263157893   0.1664085101096245 
   6.491118421052631    9.394105263157893   0.1594320316022847 
             6.75625    9.394105263157893    0.139971777615676 
   5.430592105263157    9.394105263157893  0.04046751213163903 
   5.695723684210527    9.394105263157892  0.04995846045238745 
   5.960855263157894    9.394105263157893  0.05608524876844621 
   6.225986842105263    9.394105263157892  0.06206850057319107 
   6.491118421052631    9.394105263157893  0.06696497072175067 
   6.756249999999999    9.394105263157893  0.06636875658638144 
   5.430592105263157    9.394105263157893 -0.04081804605314057 
   5.695723684210527    9.394105263157893 -0.04854527860769296 
   5.960855263157894    9.394105263157893 -0.05042528637911328 
   6.225986842105262    9.394105263157893 -0.04227150896324242 
   6.491118421052631    9.394105263157893 -0.02550209015878335 
             6.75625    9.394105263157893 -0.007234264442913112 
   5.430592105263157    9.394105263157893  -0.1221036042379202 
   5.695723684210527    9.394105263157893  -0.1470490176677734 
   5.960855263157894    9.394105263157893  -0.1569358215266728 
   6.225986842105263    9.394105263157893  -0.1466115184996759 
   6.491118421052631    9.394105263157893  -0.1179691510393174 
             6.75625    9.394105263157893 -0.08083728547220766 
Zone T="rib16Face0" I=6 J=4
DATAPACKING=POINT
   5.758364661654135    10.05194736842105   0.1142075312887922 
    6.00704887218045    10.05194736842105     0.13925699641627 
   6.255733082706767    10.05194736842105     0.15251195489267 
   6.504417293233082    10.05194736842105   0.1560865471187769 
   6.753101503759399    10.05194736842105   0.1495410090334944 
   7.001785714285714    10.05194736842105   0.1312868517239132 
   5.758364661654135    10.05194736842105  0.03795972516025934 
    6.00704887218045    10.05194736842105  0.04686096988390826 
   6.255733082706767    10.05194736842105  0.05260736667448573 
   6.504417293233081    10.05194736842105  0.05821948690657908 
     6.7531015037594    10.05194736842105  0.06281161391325912 
   7.001785714285715    10.05194736842105  0.06225180905585873 
   5.758364661654135    10.05194736842105 -0.03828808096827354 
   6.007048872180451    10.05194736842105 -0.04553505664845351 
   6.255733082706767    10.05194736842105  -0.0472972215436985 
   6.504417293233082    10.05194736842105 -0.03964757330561874 
     6.7531015037594    10.05194736842105 -0.02391778120697607 
   7.001785714285714    10.05194736842105 -0.006783233612195795 
   5.758364661654135    10.05194736842105  -0.1145358870968064 
    6.00704887218045    10.05194736842105  -0.1379310831808153 
   6.255733082706767    10.05194736842105  -0.1472018097618827 
   6.504417293233082    10.05194736842105  -0.1375146335178166 
   6.753101503759399    10.05194736842105  -0.1106471763272113 
   7.001785714285714    10.05194736842105 -0.07581827628025033 
Zone T="rib17Face0" I=6 J=4
DATAPACKING=POINT
   6.086137218045113    10.70978947368421   0.1066619837964941 
   6.318374060150375    10.70978947368421    0.130051787961025 
   6.550610902255639    10.70978947368421   0.1424281256847686 
   6.782847744360902    10.70978947368421    0.145764587602381 
   7.015084586466165    10.70978947368421   0.1396499913297087 
   7.247321428571428    10.70978947368421   0.1226019247029941 
   6.086137218045113    10.70978947368421  0.03545193045925713 
   6.318374060150377    10.70978947368421  0.04376347431500103 
    6.55061090225564    10.70978947368421  0.04912948412208262 
   6.782847744360901    10.70978947368421  0.05437047631879861 
   7.015084586466164    10.70978947368421  0.05865826062410846 
   7.247321428571428    10.70978947368421  0.05813486076949872 
   6.086137218045113    10.70978947368421 -0.03575812287797987 
   6.318374060150376    10.70978947368421 -0.04252483933102288 
   6.550610902255639    10.70978947368421 -0.04416915744060342 
   6.782847744360902    10.70978947368421 -0.03702363496478374 
   7.015084586466166    10.70978947368421 -0.02233347008149178 
   7.247321428571428    10.70978947368421 -0.006332203163996629 
   6.086137218045113    10.70978947368421  -0.1069681762152169 
   6.318374060150375    10.70978947368421  -0.1288131529770468 
   6.550610902255639    10.70978947368421  -0.1374677990032895 
   6.782847744360902    10.70978947368421  -0.1284177462483661 
   7.015084586466165    10.70978947368421   -0.103325200787092 
   7.247321428571428    10.70978947368421 -0.07079926709749203 
Zone T="rib18Face0" I=6 J=4
DATAPACKING=POINT
    6.41390977443609    11.36763157894737  0.09911644722163758 
   6.629699248120301    11.36763157894737     0.12084658915732 
   6.845488721804511    11.36763157894737   0.1323443051825008 
   7.061278195488721    11.36763157894737   0.1354426318444841 
   7.277067669172933    11.36763157894737   0.1297589708341371 
   7.492857142857142    11.36763157894737   0.1139170002222194 
    6.41390977443609    11.36763157894737  0.03294414546483129 
   6.629699248120303    11.36763157894737  0.04066598730510085 
   6.845488721804511    11.36763157894737   0.0456516104532975 
    7.06127819548872    11.36763157894737  0.05052146923450257 
   7.277067669172932    11.36763157894737  0.05450490540422319 
   7.492857142857141    11.36763157894737  0.05401791417838801 
    6.41390977443609    11.36763157894737   -0.033228156291975 
   6.629699248120302    11.36763157894737  -0.0395146145471183 
   6.845488721804511    11.36763157894737 -0.04104108427590583 
   7.061278195488721    11.36763157894737 -0.03439969337547895 
   7.277067669172933    11.36763157894737 -0.02074916002569073 
   7.492857142857142    11.36763157894737 -0.005881171865443363 
    6.41390977443609    11.36763157894737  -0.0994004580487813 
   6.629699248120301    11.36763157894737  -0.1196952163993375 
   6.845488721804511    11.36763157894737  -0.1277337790051092 
   7.061278195488721    11.36763157894737  -0.1193208559854605 